6
Properties=species:S:1:pos:R:3:momenta:R:3:forces:R:3 spin=1 charge=0 energy=-4620.767042102829 free_energy=-4620.767042102829 stress="2.393730640411377 1.0087392330169678 0.00012454875104594976 1.0087392330169678 1.1910128593444824 -4.5980083086760715e-05 0.00012454875104594976 -4.5980083086760715e-05 -2.8967397156520747e-06" pbc="F F F"
C       -0.07870000       0.50600000      -0.00010000       0.00000000       0.00000000       0.00000000      -0.13388658       1.44250488      -0.00502618
O       -1.27510000       0.13910000       0.00000000       0.00000000       0.00000000       0.00000000       0.07609606      -2.15660429       0.00238578
H        1.82860000      -0.00550000       0.00010000       0.00000000       0.00000000       0.00000000      -1.42704701      -1.22629344       0.00714050
H       -0.45980000      -1.20370000       0.00010000       0.00000000       0.00000000       0.00000000       0.68078548       2.10198855       0.00411187
H        0.14390000       1.56410000       0.00010000       0.00000000       0.00000000       0.00000000       0.08553739       0.43232447       0.00203844
N        0.83920000      -0.38100000      -0.00010000       0.00000000       0.00000000       0.00000000       0.71851450      -0.59391963      -0.01065041
6
Properties=species:S:1:pos:R:3:momenta:R:3:forces:R:3 spin=1 charge=0 energy=-4621.188517990127 free_energy=-4621.188517990127 stress="0.788926899433136 -0.5491109490394592 -0.020987892523407936 -0.5491109490394592 -1.3990706205368042 -0.0069475676864385605 -0.020987892523407936 -0.0069475676864385605 -0.0002616618003230542" pbc="F F F"
C       -0.07731253       0.52178642       0.00110390       0.11696665       0.96321559       0.17675965      -0.04492377       2.74876666      -0.08039556
O       -1.27666553       0.12542525      -0.00710985       0.11914517      -0.88679295      -0.44571992       0.97135931      -1.26756144       0.03317124
H        1.76945513      -0.11271591       0.01991923       0.07447728      -0.34303759       0.11426861       1.92087340      -0.09615866       0.03503200
H       -0.36515682      -0.98703440       0.00297071       0.33783447       0.66933784       0.01776932       0.51055813      -0.23048732      -0.00249205
H        0.14448439       1.60219195      -0.00239935      -0.02718235       0.08919369       0.00747512      -0.06518901      -0.28238791       0.02609275
N        0.83681000      -0.38740973       0.00364195      -0.62124122      -0.49191646       0.12944723      -3.29267788      -0.87217164      -0.01140836
6
Properties=species:S:1:pos:R:3:momenta:R:3:forces:R:3 spin=1 charge=0 energy=-4621.669467153564 free_energy=-4621.669467153564 stress="4.489545822143555 2.1248106956481934 0.20381373167037964 2.1248106956481934 -3.960132360458374 0.2827761471271515 0.20381373167037964 0.2827761471271515 0.010918674990534782" pbc="F F F"
C       -0.08503688       0.58911447       0.00659467      -0.56193058       1.97638391       0.06548161      -2.17018223      -0.88534886      -0.11766236
O       -1.26494488       0.09634989      -0.02638158       0.63775992      -0.74996299      -0.79282974       1.34144843       2.48032975       0.10368831
H        1.86131038      -0.33943448       0.09776976      -0.16427634      -0.60192180       0.19027805      -2.45214415      -0.53295892      -0.07736661
H       -0.09845040      -0.92648981       0.06011256       0.80100993      -0.69425661       0.19156532       1.12411499      -3.68362141       0.07401811
H        0.16466080       1.62509709       0.05859979       0.12238187       0.23084340       0.19574124       0.05037334       0.84068990      -0.08588434
N        0.80200885      -0.40272692       0.00717229      -0.83494473      -0.16108575       0.14976352       2.10638976       1.78090978       0.10320688
6
Properties=species:S:1:pos:R:3:momenta:R:3:forces:R:3 spin=1 charge=0 energy=-4621.918107452408 free_energy=-4621.918107452408 stress="-4.499885559082031 2.40295147895813 -0.2143850475549698 2.40295147895813 10.183969497680664 -0.4082402288913727 -0.2143850475549698 -0.4082402288913727 0.13071894645690918" pbc="F F F"
C       -0.12708022       0.64733676       0.00391286      -1.50296539       0.33208172      -0.02713963      -1.00920236      -4.17406893       0.70033723
O       -1.23560673       0.09201432      -0.04837229       1.01195668       0.75956657      -0.82571195      -0.56374711       3.81133413      -0.11090472
H        1.71697346      -0.62061913       0.16740026       0.07857780      -0.30488356       0.17327515       2.05224133       1.92743695       0.13039087
H        0.43050539      -1.44725498       0.15506507       1.28992732      -0.74580157       0.15476216      -0.57570451       3.62013555      -0.69922698
H        0.20418050       1.74197175       0.13145190       0.01958544       0.09891222       0.10670059      -0.56942987      -1.61814165      -0.45509705
N        0.77425599      -0.39857103       0.01748584      -0.89708171      -0.13987525       0.41811369       0.66584253      -3.56669593       0.43450058
6
Properties=species:S:1:pos:R:3:momenta:R:3:forces:R:3 spin=1 charge=0 energy=-4621.7475325489195 free_energy=-4621.7475325489195 stress="-7.40957498550415 -4.76713228225708 -0.1238117590546608 -4.76713228225708 0.514398455619812 -0.5246269106864929 -0.1238117590546608 -0.5246269106864929 0.060888711363077164" pbc="F F F"
C       -0.18098978       0.61856448       0.01236139      -0.68617620      -1.66230374       0.52658861       4.50272226      -4.65066862       0.85925448
O       -1.22300997       0.13819861      -0.08122386      -0.66367121       1.84949660      -1.29938878      -6.85674095       0.59345508      -0.69655263
H        1.82338845      -0.43156798       0.22937397       0.00047217       1.09272912       0.05332326      -1.43551719       2.33531809      -0.46365231
H        0.83387020      -1.41257975       0.15702546       0.09534876       0.54612751      -0.10923470      -3.04057574      -1.17736304      -0.19513705
H        0.15872674       1.60672991       0.15771006      -0.08255954      -0.39407538      -0.02978818       0.47289827       1.41127205      -0.08445371
N        0.77338095      -0.43177700       0.03828062       1.33658615      -1.43197400       0.85849980       6.35721397       1.48798609       0.58054125
6
Properties=species:S:1:pos:R:3:momenta:R:3:forces:R:3 spin=1 charge=0 energy=-4622.8159845495375 free_energy=-4622.8159845495375 stress="-2.6848177909851074 1.3297942876815796 -0.3750893771648407 1.3297942876815796 7.8526482582092285 0.3263215720653534 -0.3750893771648407 0.3263215720653534 -0.013624678365886211" pbc="F F F"
C       -0.16031372       0.50616926       0.03725708       1.41969263      -3.60960185       0.62017613       1.02202582      -1.27225971      -0.17629090
O       -1.29696344       0.19836581      -0.12252742      -3.76264185       2.00027400      -1.20610737      -1.67916465       0.27238503      -0.05192558
H        1.68138250       0.17145440       0.23527565      -0.42267325       0.98423334      -0.06833069       0.30070052      -2.32288456       0.03275625
H        0.64601488      -1.51666967       0.11110354      -0.50603220      -0.23373092      -0.13515868       1.06130934       3.36096787      -0.01343079
H        0.19849707       1.57794386       0.14570853       0.20133225       0.04699528      -0.08235927      -0.13120250      -0.88490933      -0.08004257
N        0.86168877      -0.43771943       0.06672399       3.07032263       0.81183012       0.87177988      -0.57366848       0.84670091       0.28893360
6
Properties=species:S:1:pos:R:3:momenta:R:3:forces:R:3 spin=1 charge=0 energy=-4621.686543765083 free_energy=-4621.686543765083 stress="4.832918167114258 1.1444896459579468 0.962468147277832 1.1444896459579468 -4.157954216003418 -0.25768721103668213 0.962468147277832 -0.25768721103668213 0.2253459244966507" pbc="F F F"
C       -0.12466391       0.36817447       0.06070635      -0.17919883      -2.69007816       0.22520334      -5.87437344       4.01028109      -1.88177407
O       -1.39902059       0.25965043      -0.15631773      -2.29774234       1.85821853      -0.83850231       5.45874405      -1.11632752       1.22531617
H        1.59628286       0.34500325       0.20540322       0.26516383      -0.22108250      -0.05049992       2.45003271      -1.72435641       0.16357327
H        0.61796802      -1.29102015       0.02819580       0.38495188       0.45070216      -0.14268301       1.03184962      -4.23287916      -0.12245248
H        0.25109161       1.43770070       0.06971039       0.03588884      -0.57740320      -0.14503889      -0.63017195      -0.35154003       0.36239803
N        0.95181999      -0.40795351       0.09891572       1.79093680       1.17964311       0.95152081      -2.43608046       3.41482210       0.25293902
6
Properties=species:S:1:pos:R:3:momenta:R:3:forces:R:3 spin=1 charge=0 energy=-4621.969451608673 free_energy=-4621.969451608673 stress="8.945551872253418 0.5761369466781616 1.139703392982483 0.5761369466781616 0.41616934537887573 0.27432823181152344 1.139703392982483 0.27432823181152344 0.3391801118850708" pbc="F F F"
C       -0.18927318       0.29947484       0.05240679      -2.57180657      -0.69229209      -0.62941647      -0.73764247       4.52106524      -1.19249904
O       -1.42622259       0.30611317      -0.17218879       0.30104124       0.79347186      -0.37068647       3.20475292      -2.83946967       0.82793742
H        1.94046116       0.11189314       0.17003858       0.67927195      -0.63754235      -0.06001836      -2.27787852      -0.75464875      -0.11435612
H        0.93836608      -1.47234982      -0.05811662       0.94887758      -0.27245918      -0.05569855       0.77232945       3.35170817       0.75206798
H        0.21866052       1.29862641       0.06686082      -0.08150067       0.26963978       0.17645532      -0.17650333       1.54380071       0.51172537
N        0.99416250      -0.36300690       0.13401527       0.72411672       0.53918184       0.93936457      -0.78505808      -5.82245588      -0.78487569
6
Properties=species:S:1:pos:R:3:momenta:R:3:forces:R:3 spin=1 charge=0 energy=-4621.352933349624 free_energy=-4621.352933349624 stress="1.6119095087051392 -5.367711067199707 -0.14643847942352295 -5.367711067199707 -3.1965134143829346 -0.9216973781585693 -0.14643847942352295 -0.9216973781585693 -0.14965958893299103" pbc="F F F"
C       -0.26145073       0.32416015       0.01673680      -0.27390314       2.05910889      -0.69807493       7.02431059       5.51385307       0.92458981
O       -1.40926695       0.30741880      -0.17811585       0.34388679      -0.81631467      -0.23997250      -2.68247581      -3.53423142      -0.57230216
H        1.94656191      -0.13784200       0.13184324      -0.29932812       0.02726083      -0.04840661       1.58819783       3.89540577       0.17046708
H        1.30724371      -1.29376925      -0.00850932       0.38906036       0.37648498       0.18136107      -1.79337442      -3.65417385      -0.55807114
H        0.10438972       1.43518922       0.15099771      -0.35529382       0.01685541       0.24953014       0.10926916      -1.40339661       0.06200231
N        1.01609779      -0.39031245       0.16252526       0.19557816      -1.66339542       0.55556289      -4.24592733      -0.81745726      -0.02668587
6
Properties=species:S:1:pos:R:3:momenta:R:3:forces:R:3 spin=1 charge=0 energy=-4622.134286108032 free_energy=-4622.134286108032 stress="9.20143985748291 -4.116931915283203 0.2651047110557556 -4.116931915283203 4.834511756896973 -0.8216419219970703 0.2651047110557556 -0.8216419219970703 0.01325459685176611" pbc="F F F"
C       -0.22004278       0.44259156      -0.00319151       1.74481006       2.99215797      -0.29672544      -0.47829181      -3.37889004       0.48743016
O       -1.41193239       0.25913601      -0.18982318      -0.04931380      -2.04472041      -0.53579239       2.33992767      -1.15742111      -0.17671399
H        1.87425230       0.22179677       0.15009634      -0.53607992       0.81694469       0.07824323      -2.49926376      -2.10751033       0.15331142
H        1.30030361      -1.49507468       0.01709093      -0.49551000      -0.42134979       0.00571172      -1.77077579       2.95191479       0.07599337
H        0.02298085       1.41446201       0.28319941       0.14425717       0.23088975       0.34699543       1.45423031       1.87723184       0.26261017
N        0.99616241      -0.44835282       0.17931610      -0.80816320      -1.57392221       0.40156752       0.95417362       1.81467509      -0.80263120
6
Properties=species:S:1:pos:R:3:momenta:R:3:forces:R:3 spin=1 charge=0 energy=-4621.38633018972 free_energy=-4621.38633018972 stress="5.552088737487793 -1.592658519744873 1.7243419885635376 -1.592658519744873 3.03905987739563 -0.25323212146759033 1.7243419885635376 -0.25323212146759033 0.5061124563217163" pbc="F F F"
C       -0.16666038       0.52659358      -0.00564399       0.64134706       1.09355557       0.39659004      -4.16221619      -4.36718464       1.37706232
O       -1.39068069       0.19483416      -0.21029466       1.95496217      -1.84865632      -0.70947824       5.74509573       2.13535380       0.49580663
H        1.49965570       0.30581861       0.19486777      -0.35131669      -0.29885161       0.13040030       4.99224234       0.74442595       0.07420980
H        0.95541083      -1.39366171      -0.00727105      -0.72113849       0.16254189      -0.18247019       0.38267240      -2.95394039      -1.14639008
H        0.20730691       1.57113474       0.40193223       0.34783680       0.02626908      -0.01238267      -0.78487486      -1.67007291      -1.25663149
N        0.96319357      -0.47058012       0.19346582      -1.87169041       0.86514149       0.37734084      -6.17291880       6.11141872       0.45594272
6
Properties=species:S:1:pos:R:3:momenta:R:3:forces:R:3 spin=1 charge=0 energy=-4622.546750488296 free_energy=-4622.546750488296 stress="3.827194929122925 3.2616255283355713 0.7301735877990723 3.2616255283355713 3.657677173614502 0.7829029560089111 0.7301735877990723 0.7829029560089111 0.3631734251976013" pbc="F F F"
C       -0.17418416       0.52689615       0.01943023      -0.66898054      -1.08026153       0.82334528       0.71031731      -4.06535244       0.52100760
O       -1.29600696       0.15561489      -0.22764652       3.74814411      -0.79351675      -0.45039085       0.00814116       1.29907441      -0.18488756
H        1.85243617       0.17251145       0.27196901       0.87079642      -0.79892669       0.05046746      -3.26110458      -3.10342002      -0.46231809
H        0.68327093      -1.41307489      -0.16289267      -0.34356156       0.32403156      -0.21331279       0.91175568       2.48172808       0.85104591
H        0.29304049       1.44528661       0.27699972      -0.04531539      -0.22459737      -0.39950053      -0.60382813       2.00065947      -0.02297709
N        0.85113210      -0.40877399       0.20610025      -3.56108245       2.57327095       0.18939152       2.23471856       1.38731062      -0.70187080
6
Properties=species:S:1:pos:R:3:momenta:R:3:forces:R:3 spin=1 charge=0 energy=-4621.988599958435 free_energy=-4621.988599958435 stress="-13.952536582946777 1.6273974180221558 -3.989802837371826 1.6273974180221558 -6.9797892570495605 -1.1035447120666504 -3.989802837371826 -1.1035447120666504 -1.260509967803955" pbc="F F F"
C       -0.17237804       0.47967461       0.06162058       1.12029162      -0.18621454       1.25887200       3.74084330       8.39389324       0.53756028
O       -1.20643992       0.12922908      -0.24527073       1.11940546      -1.14480621      -0.98040917      -8.21621513      -1.55038083      -1.99187267
H        1.76639217      -0.40383884       0.24538383      -0.87790531      -1.05613803      -0.08680659       0.37640694       2.10688996       0.59923857
H        0.57772143      -1.14204874      -0.23732241      -0.26620192       0.21113403      -0.25298786      -1.48133874      -3.32155895      -1.01563764
H        0.22276767       1.57707780       0.10322102      -0.30771516       0.46311338      -0.27177210      -1.09366906      -0.85293233       0.41767853
N        0.76709312      -0.32588728       0.21172744      -0.78787408       1.71291149       0.33310379       6.67397261      -4.77591085       1.45303285
6
Properties=species:S:1:pos:R:3:momenta:R:3:forces:R:3 spin=1 charge=0 energy=-4621.7785301828535 free_energy=-4621.7785301828535 stress="-2.2811903953552246 3.129800796508789 0.030028967186808586 3.129800796508789 -0.4202207326889038 1.8707340955734253 0.030028967186808586 1.8707340955734253 1.2508584260940552" pbc="F F F"
C       -0.13135000       0.55162775       0.10521222       0.07223118       3.17199458       0.69422630      -4.29698849       2.03966069      -2.49363875
O       -1.21804573       0.09012051      -0.28402264      -0.99332088      -1.06466330      -1.40006708      -0.37140620       1.47766936       0.52854776
H        1.77654331      -0.69012579       0.28649616       0.55013022      -0.08512137       0.29478828      -1.49371529       2.70936108       0.48572463
H        0.31778222      -1.16548296      -0.33074714      -0.56619939       0.11016066       0.19955573       0.98072708       1.77540076       2.02109241
H       -0.00996518       1.62893682       0.04083631      -0.45924936      -0.15460506       0.08416707       0.54482538       0.26109895       1.01014411
N        0.77898582      -0.32379797       0.22573790       1.39640880      -1.97776505       0.12732975       4.63655758      -8.26319122      -1.55187023
6
Properties=species:S:1:pos:R:3:momenta:R:3:forces:R:3 spin=1 charge=0 energy=-4621.799413385406 free_energy=-4621.799413385406 stress="3.4914801120758057 -0.8846457600593567 1.101944088935852 -0.8846457600593567 3.9444949626922607 0.2654547095298767 1.101944088935852 0.2654547095298767 0.45019495487213135" pbc="F F F"
C       -0.16294989       0.65425142       0.10840108      -1.33357949       1.26581648      -0.52716946      -2.00482512      -4.86160851      -2.25674176
O       -1.24390090       0.07515123      -0.31831836      -0.14699560       0.23362639      -0.68621158       3.26716852       3.58355713       1.85027516
H        1.79307111      -0.50471254       0.41728411      -0.25623801       0.63100727       0.23400836       1.72110879       0.17323156       0.37510520
H        0.19289444      -1.05351387      -0.09003172      -0.18248653      -0.17889834       0.51502090      -0.40035072      -3.31941748      -0.74238050
H       -0.11423753       1.77119623       0.18825920      -0.00300399       0.63134382       0.44979260       0.59154636      -1.16619241       0.36796036
N        0.84903933      -0.42521857       0.22371576       1.92230421      -2.58289509       0.01455916      -3.17464781       5.59042931       0.40578166
6
Properties=species:S:1:pos:R:3:momenta:R:3:forces:R:3 spin=1 charge=0 energy=-4621.639267983452 free_energy=-4621.639267983452 stress="6.383847236633301 0.851868748664856 1.3401910066604614 0.851868748664856 10.579605102539062 1.7486445903778076 1.3401910066604614 1.7486445903778076 0.6292727589607239" pbc="F F F"
C       -0.22820402       0.66663931       0.07578235      -1.45387595      -0.54585199      -1.00622745       1.82829046      -4.28422642       0.25416031
O       -1.22716276       0.10777665      -0.32574206       0.87680340       1.74109799       0.21365299      -0.03458930       2.40510964       0.40407515
H        1.87189748      -0.21715199       0.55582093      -0.04429659       0.37405016       0.23305640      -2.61347437      -1.51726913      -0.60236281
H        0.22090027      -1.34508050       0.13586876       0.59803647      -0.49794629       0.53829180       2.72086573       1.81428683       0.49737766
H       -0.08844214       1.79647002       0.39213331       0.03632365      -0.65744177       0.27494803       0.05518838      -2.25687456      -0.74247497
N        0.87567877      -0.47343253       0.21914462      -0.01299035      -0.41390760      -0.25372186      -1.95628047       3.83897328       0.18922459
6
Properties=species:S:1:pos:R:3:momenta:R:3:forces:R:3 spin=1 charge=0 energy=-4622.244368138328 free_energy=-4622.244368138328 stress="-8.950451850891113 -6.710332870483398 -4.019170761108398 -6.710332870483398 0.07171133905649185 -2.7022058963775635 -4.019170761108398 -2.7022058963775635 -1.840977430343628" pbc="F F F"
C       -0.24485119       0.58786824       0.04274218       1.15582985      -3.28294029      -0.41832457       7.45428467      -4.37738705       2.92971683
O       -1.22277181       0.17037354      -0.32455547      -1.12521009       1.96447182      -0.50165234      -7.25674391      -1.32430482      -3.00750661
H        1.66665409      -0.19689269       0.62462524      -0.21592568       0.00325438       0.24627409       3.29634929       1.50813293       1.62861371
H        0.70121599      -1.42034187       0.40371893       0.94623164      -0.04387642       0.59136006      -1.04608941      -0.30549806      -0.32012349
H       -0.04587378       1.49717708       0.49865043       0.19505517      -0.06568953       0.34569933       0.82921857       2.37389207       0.41016155
N        0.86053785      -0.45354880       0.21507494      -0.95598034       1.42478045      -0.26335670      -3.27701902       2.12516475      -1.64086163
6
Properties=species:S:1:pos:R:3:momenta:R:3:forces:R:3 spin=1 charge=0 energy=-4622.339515390411 free_energy=-4622.339515390411 stress="2.2989418506622314 2.120044469833374 2.802379608154297 2.120044469833374 1.0653321743011475 0.9305102229118347 2.802379608154297 0.9305102229118347 2.7258522510528564" pbc="F F F"
C       -0.14764454       0.43666185       0.06631883       2.47242905      -3.44212097       1.38229065      -5.17772675       3.05864477       1.06741440
O       -1.29267810       0.22503542      -0.35731608      -2.53255715       1.67846835      -1.22658053       2.39899635       0.10058460       0.44986874
H        1.68933191      -0.00487410       0.78474357      -0.36561068       0.58558276      -0.00490983      -2.43736076      -0.21364848      -2.02419043
H        0.95093093      -1.37070858       0.58571307      -0.02098752       0.40105094      -0.00340935      -1.88440263       0.70606852      -1.51754868
H        0.06888026       1.48260499       0.59056551       0.18377564      -0.30320215      -0.16317091      -0.06758945      -1.55378950      -1.46880746
N        0.83032349      -0.40368194       0.20291885       0.26295117       1.08022145       0.01577989       7.16808414      -2.09785986       3.49326372
6
Properties=species:S:1:pos:R:3:momenta:R:3:forces:R:3 spin=1 charge=0 energy=-4621.901003303543 free_energy=-4621.901003303543 stress="-0.45360711216926575 2.457340717315674 0.475948303937912 2.457340717315674 -6.270768165588379 -0.5825850963592529 0.475948303937912 -0.5825850963592529 0.20445317029953003" pbc="F F F"
C       -0.13586069       0.33872282       0.11128206      -2.34688411      -1.19848839       0.27895001      -9.80756950       3.48683167      -3.94558954
O       -1.34246586       0.27498810      -0.38749411      -0.50200625       1.29679426      -0.43117404       5.09553480      -1.29791617       2.29992914
H        1.44207984       0.27035505       0.67000161       0.00111704       0.64626056      -0.10500534       3.10538173      -0.08582360       1.63868392
H        0.78541851      -1.32850662       0.53773877      -0.39377183      -0.44359979      -0.09308665       0.55776221      -0.65635389      -0.15102255
H        0.15368775       1.30217789       0.40000696       0.16122854      -0.02204915      -0.40932596      -0.13650204       2.39322329       0.41700163
N        0.89963347      -0.38579552       0.22271806       3.08031725      -0.27891699       0.75964194       1.18539321      -3.83996129      -0.25900277
6
Properties=species:S:1:pos:R:3:momenta:R:3:forces:R:3 spin=1 charge=0 energy=-4621.876557054535 free_energy=-4621.876557054535 stress="2.3073577880859375 1.0093352794647217 -0.7478487491607666 1.0093352794647217 2.9122989177703857 0.0804254487156868 -0.7478487491607666 0.0804254487156868 -0.4068361222743988" pbc="F F F"
C       -0.27723365       0.32522320       0.09242136      -3.00158341       0.73356593      -0.82246967       7.20030451       4.83420038       0.35263985
O       -1.33287745       0.30126117      -0.38472005       0.45239663       0.29819715       0.32179426      -2.96805143      -2.66742444      -0.71721423
H        1.62165522       0.33573366       0.68187749       0.34609874      -0.60615635       0.02348391      -0.84661710      -2.72748113      -0.15935694
H        0.76085469      -1.39734739       0.46762176       0.40256350       0.27570975      -0.22304042       1.64904666       0.71848673       0.36482695
H        0.18336635       1.42041684       0.24100130      -0.13898478       0.19439424      -0.26545399      -1.05971396      -0.99671364       0.35463476
N        0.99489798      -0.41179747       0.25105370       1.93950992      -0.89571026       0.96568586      -3.97496819       0.83893180      -0.19553031
6
Properties=species:S:1:pos:R:3:momenta:R:3:forces:R:3 spin=1 charge=0 energy=-4622.123645486847 free_energy=-4622.123645486847 stress="3.866407632827759 -5.652818202972412 0.28457874059677124 -5.652818202972412 -0.6972540020942688 -2.4262032508850098 0.28457874059677124 -2.4262032508850098 -0.11488751322031021" pbc="F F F"
C       -0.29934602       0.39927629       0.07385711       1.79520020       2.54315872       0.02356775       5.79154158       0.33393970       0.81795204
O       -1.36008818       0.29142680      -0.38944184      -2.14257662      -1.21951521      -0.73590203      -2.22947979      -2.74565244      -0.72480726
H        1.81026706      -0.07356607       0.79219495       0.50885363      -0.64560486       0.45949350      -0.70066255       1.21740568      -0.02569515
H        1.08069910      -1.44082996       0.46889700       0.67866717      -0.46875825       0.07466977      -1.01273286       0.68662196      -0.67120755
H        0.02879301       1.39615086       0.20556450      -0.29630049      -0.05567526       0.10518877       0.92591357       1.45849586       0.87731063
N        1.01955474      -0.42769980       0.26706178      -0.54384342      -0.15360468       0.07298218      -2.77457952      -0.95081079      -0.27355272
6
Properties=species:S:1:pos:R:3:momenta:R:3:forces:R:3 spin=1 charge=0 energy=-4621.670112671867 free_energy=-4621.670112671867 stress="15.117083549499512 -4.777568340301514 5.082283020019531 -4.777568340301514 4.527072906494141 -1.2865562438964844 5.082283020019531 -1.2865562438964844 1.8493571281433105" pbc="F F F"
C       -0.21094158       0.48152044       0.07665153       1.78983883       1.26511835      -0.17680797      -3.00016212      -2.07900047      -1.51181316
O       -1.41224913       0.24316985      -0.40722713      -0.36739819      -1.64979557      -0.08957088       7.11539221       0.37104037       2.68995023
H        1.82039397      -0.24190726       0.86559652      -0.51629195       0.04492907      -0.11592505      -1.10567582       1.98728108      -0.38623065
H        1.17894067      -1.45425862       0.35197256      -0.42533377       0.35226099      -0.51121102      -2.31281543       0.20482954      -1.08603632
H        0.01535605       1.56896403       0.31878188       0.22221921       0.45376531       0.38911237       0.27495947      -1.51739359      -0.09066731
N        0.99415799      -0.44216936       0.27917135      -0.70303358      -0.46627775       0.50440251      -0.97169840       1.03324330       0.38479716
6
Properties=species:S:1:pos:R:3:momenta:R:3:forces:R:3 spin=1 charge=0 energy=-4622.446372153774 free_energy=-4622.446372153774 stress="12.084047317504883 0.6234487295150757 4.503410816192627 0.6234487295150757 6.8897223472595215 1.9906293153762817 4.503410816192627 1.9906293153762817 2.326169490814209" pbc="F F F"
C       -0.17067593       0.51594821       0.05168483       0.28295892       0.28804624      -1.00499362      -2.91369438      -3.32329607      -0.34570041
O       -1.36552808       0.19562534      -0.39213357       3.18130368      -1.34167613       1.07896561       6.60452032       1.71945655       2.03172445
H        1.65001594      -0.00304914       0.92190743      -0.18592568       0.57942045       0.31847085      -0.66342181      -1.42815590      -0.98607063
H        0.78814306      -1.44084885       0.00723899      -0.94403144      -0.09657009      -0.72928758       0.59925687       1.87965417       0.95712036
H        0.12156483       1.54858447       0.44971143       0.12686321      -0.55648607       0.06423946      -0.56813294      -1.16318786      -0.78347784
N        0.93877334      -0.43454650       0.29432175      -2.46116810       1.12726598       0.27260525      -3.05852795       2.31552911      -0.87359607
6
Properties=species:S:1:pos:R:3:momenta:R:3:forces:R:3 spin=1 charge=0 energy=-4622.508440377727 free_energy=-4622.508440377727 stress="-5.120727062225342 1.009861707687378 -1.673250675201416 1.009861707687378 -4.419297218322754 -0.5879409909248352 -1.673250675201416 -0.5879409909248352 -0.48561009764671326" pbc="F F F"
C       -0.17382842       0.48669053       0.00718321       0.09711156      -1.44949633      -0.85533067       2.88932943       0.10374473       3.28037190
O       -1.23474210       0.16321520      -0.35465313       4.35215744      -0.90497611       1.16270654      -3.40136218      -0.36156210      -2.24452233
H        1.45624296       0.02810285       0.92196777      -0.43614496      -0.50680854      -0.21044067       1.74621940      -0.85592514       0.77098703
H        0.50048113      -1.22802117      -0.14381160      -0.14632223       0.70702869       0.09591910       1.54778659      -1.13139689       1.03583431